 Gaussian 09, Revision D.01,
 Gaussian 09:  AM64L-G09RevD.01 24-Apr-2013

 -------------------------------------------
 # opt hf/3-21g geom=connectivity output=wfn
 -------------------------------------------

 -------------------
 Title Card Required
 -------------------
 Symbolic Z-matrix:
 Charge =  0 Multiplicity = 1

 SCF Done:  E(RHF) =  -1.10472133420     A.U. after    4 cycles
 SCF Done:  E(RHF) =  -1.12289845530     A.U. after    5 cycles
 SCF Done:  E(RHF) =  -1.12295967955     A.U. after    4 cycles
 SCF Done:  E(RHF) =  -1.12295983750     A.U. after    3 cycles
 Optimization completed.
    -- Stationary point found.

                         Standard orientation:
 ---------------------------------------------------------------------
 Center     Atomic      Atomic             Coordinates (Angstroms)
 Number     Number       Type             X           Y           Z
 ---------------------------------------------------------------------
      1          1           0        0.000000    0.000000    0.367411
      2          1           0        0.000000    0.000000   -0.367411
 ---------------------------------------------------------------------

 The electronic state is 1-SGG.
 Alpha  occ. eigenvalues --   -0.59424
 Alpha virt. eigenvalues --    0.26570   0.91751   1.53193

 Mulliken charges:
               1
     1  H    0.000000
     2  H    0.000000
 Sum of Mulliken charges =   0.00000

 Dipole moment (field-independent basis, Debye):
    X=              0.0000    Y=              0.0000    Z=              0.0000  Tot=              0.0000
 Quadrupole moment (field-independent basis, Debye-Ang):
   XX=             -1.9942   YY=             -1.9942   ZZ=             -1.5704
   XY=              0.0000   XZ=              0.0000   YZ=              0.0000

 Normal termination of Gaussian 09 at Wed Apr 29 13:01:46 2020.
